/*--------------------------------*- C++ -*----------------------------------*\
| =========                 |                                                 |
| \\      /  F ield         | OpenFOAM: The Open Source CFD Toolbox           |
|  \\    /   O peration     | Version:  v2012                                 |
|   \\  /    A nd           | Website:  www.openfoam.com                      |
|    \\/     M anipulation  |                                                 |
\*---------------------------------------------------------------------------*/
FoamFile
{
    version     2.0;
    format      ascii;
    class       volVectorField;
    location    "4";
    object      U;
}
// * * * * * * * * * * * * * * * * * * * * * * * * * * * * * * * * * * * * * //

dimensions      [0 1 -1 0 0 0 0];


internalField   uniform (0 0 0);

boundaryField
{
    inlet
    {
        type            timeVaryingMappedFixedValue;
        offset          constant (0 0 0);
        value           nonuniform List<vector> 
8550
(
(-0.007 0 -3.0823)
(-0.007 0 -3.0823)
(-0.007 0 -3.0823)
(-0.007 0 -3.0823)
(-0.007 0 -3.0823)
(-0.007 0 -3.0823)
(-0.007 0 -3.0823)
(-0.007 0 -3.0823)
(-0.007 0 -3.0823)
(-0.007 0 -3.0823)
(-0.007 0 -3.0823)
(-0.007 0 -3.0823)
(-0.007 0 -3.0823)
(-0.007 0 -3.0823)
(-0.007 0 -3.0823)
(-0.007 0 -3.0823)
(-0.007 0 -3.0823)
(-0.007 0 -3.0823)
(-0.007 0 -3.0823)
(-0.007 0 -3.0823)
(-0.007 0 -3.0823)
(-0.007 0 -3.0823)
(-0.007 0 -3.0823)
(-0.007 0 -3.0823)
(-0.007 0 -3.0823)
(-0.007 0 -3.0823)
(-0.007 0 -3.0823)
(-0.007 0 -3.0823)
(-0.007 0 -3.0823)
(-0.007 0 -3.0823)
(-0.007 0 -3.0823)
(-0.007 0 -3.0823)
(-0.007 0 -3.0823)
(-0.007 0 -3.0823)
(-0.007 0 -3.0823)
(-0.007 0 -3.0823)
(-0.007 0 -3.0823)
(-0.007 0 -3.0823)
(-0.007 0 -3.0823)
(-0.007 0 -3.0823)
(-0.007 0 -3.0823)
(-0.007 0 -3.0823)
(-0.007 0 -3.0823)
(-0.007 0 -3.0823)
(-0.007 0 -3.0823)
(-0.007 0 -3.0823)
(-0.007 0 -3.0823)
(-0.007 0 -3.0823)
(-0.007 0 -3.0823)
(-0.007 0 -3.0823)
(-0.007 0 -3.0823)
(-0.007 0 -3.0823)
(-0.007 0 -3.0823)
(-0.007 0 -3.0823)
(-0.007 0 -3.0823)
(-0.007 0 -3.0823)
(-0.007 0 -3.0823)
(-0.007 0 -3.0823)
(-0.007 0 -3.0823)
(-0.007 0 -3.0823)
(-0.007 0 -3.0823)
(-0.007 0 -3.0823)
(-0.007 0 -3.0823)
(-0.007 0 -3.0823)
(-0.007 0 -3.0823)
(-0.007 0 -3.0823)
(-0.007 0 -3.0823)
(-0.007 0 -3.0823)
(-0.007 0 -3.0823)
(-0.007 0 -3.0823)
(-0.007 0 -3.0823)
(-0.007 0 -3.0823)
(-0.007 0 -3.0823)
(-0.007 0 -3.0823)
(-0.007 0 -3.0823)
(-0.007 0 -3.0823)
(-0.007 0 -3.0823)
(-0.007 0 -3.0823)
(-0.007 0 -3.0823)
(-0.007 0 -3.0823)
(-0.007 0 -3.0823)
(-0.007 0 -3.0823)
(-0.007 0 -3.0823)
(-0.007 0 -3.0823)
(-0.007 0 -3.0823)
(-0.007 0 -3.0823)
(-0.007 0 -3.0823)
(-0.007 0 -3.0823)
(-0.007 0 -3.0823)
(-0.007 0 -3.0823)
(-0.007 0 -3.0823)
(-0.007 0 -3.0823)
(-0.007 0 -3.0823)
(-0.007 0 -3.0823)
(-0.007 0 -3.0823)
(-0.007 0 -3.0823)
(-0.007 0 -3.0823)
(-0.007 0 -3.0823)
(-0.007 0 -3.0823)
(-0.007 0 -3.0823)
(-0.007 0 -3.0823)
(-0.007 0 -3.0823)
(-0.007 0 -3.0823)
(-0.007 0 -3.0823)
(-0.007 0 -3.0823)
(-0.007 0 -3.0823)
(-0.007 0 -3.0823)
(-0.007 0 -3.0823)
(-0.007 0 -3.0823)
(-0.007 0 -3.0823)
(-0.007 0 -3.0823)
(-0.007 0 -3.0823)
(-0.007 0 -3.0823)
(-0.007 0 -3.0823)
(-0.007 0 -3.0823)
(-0.007 0 -3.0823)
(-0.007 0 -3.0823)
(-0.007 0 -3.0823)
(-0.007 0 -3.0823)
(-0.007 0 -3.0823)
(-0.007 0 -3.0823)
(-0.007 0 -3.0823)
(-0.007 0 -3.0823)
(-0.007 0 -3.0823)
(-0.007 0 -3.0823)
(-0.007 0 -3.0823)
(-0.007 0 -3.0823)
(-0.007 0 -3.0823)
(-0.007 0 -3.0823)
(-0.007 0 -3.0823)
(-0.007 0 -3.0823)
(-0.007 0 -3.0823)
(-0.007 0 -3.0823)
(-0.007 0 -3.0823)
(-0.007 0 -3.0823)
(-0.007 0 -3.0823)
(-0.007 0 -3.0823)
(-0.007 0 -3.0823)
(-0.007 0 -3.0823)
(-0.007 0 -3.0823)
(-0.007 0 -3.0823)
(-0.007 0 -3.0823)
(-0.007 0 -3.0823)
(-0.007 0 -3.0823)
(-0.007 0 -3.0823)
(-0.007 0 -3.0823)
(-0.007 0 -3.0823)
(-0.007 0 -3.0823)
(-0.007 0 -3.0823)
(-0.007 0 -3.0823)
(-0.007 0 -3.0823)
(-0.007 0 -3.0823)
(-0.007 0 -3.0823)
(-0.007 0 -3.0823)
(-0.007 0 -3.0823)
(-0.007 0 -3.0823)
(-0.007 0 -3.0823)
(-0.007 0 -3.0823)
(-0.007 0 -3.0823)
(-0.007 0 -3.0823)
(-0.007 0 -3.0823)
(-0.007 0 -3.0823)
(-0.007 0 -3.0823)
(-0.007 0 -3.0823)
(-0.007 0 -3.0823)
(-0.007 0 -3.0823)
(-0.007 0 -3.0823)
(-0.007 0 -3.0823)
(-0.007 0 -3.0823)
(-0.007 0 -3.0823)
(-0.007 0 -3.0823)
(-0.007 0 -3.0823)
(-0.007 0 -3.0823)
(-0.007 0 -3.0823)
(-0.007 0 -3.0823)
(-0.007 0 -3.0823)
(-0.007 0 -3.0823)
(-0.007 0 -3.0823)
(-0.007 0 -3.0823)
(-0.007 0 -3.0823)
(0.55337966 0 -3.1086149)
(0.52160921 0 -3.107123)
(0.48983875 0 -3.105631)
(0.45806829 0 -3.1041391)
(0.42629784 0 -3.1026472)
(0.39452738 0 -3.1011553)
(0.36275692 0 -3.0996634)
(0.33098647 0 -3.0981715)
(0.066776278 0 -2.1522826)
(0.066854552 0 -2.1512959)
(0.066856898 0 -2.1512663)
(0.066859244 0 -2.1512367)
(0.066861591 0 -2.1512071)
(0.066863937 0 -2.1511776)
(0.066866283 0 -2.151148)
(0.066896803 0 -2.1507632)
(0.066955497 0 -2.1500234)
(0.066876783 0 -2.1510156)
(0.066786562 0 -2.1521529)
(0.066696341 0 -2.1532903)
(0.06660612 0 -2.1544276)
(0.066515899 0 -2.1555649)
(0.066425678 0 -2.1567022)
(0.066458889 0 -2.1562836)
(0.066546952 0 -2.1551734)
(0.066706842 0 -2.1531579)
(0.066866732 0 -2.1511423)
(0.067026622 0 -2.1491268)
(0.067186512 0 -2.1471112)
(0.067346402 0 -2.1450956)
(0.067403341 0 -2.1443779)
(0.067357405 0 -2.1449569)
(0.067311468 0 -2.145536)
(0.067265532 0 -2.1461151)
(0.067219595 0 -2.1466942)
(0.067173659 0 -2.1472732)
(0.067080853 0 -2.1484431)
(0.066954355 0 -2.1500377)
(0.066976499 0 -2.1497586)
(0.066998642 0 -2.1494795)
(0.067020786 0 -2.1492003)
(0.067042929 0 -2.1489212)
(0.067065072 0 -2.1486421)
(0.067086699 0 -2.1483694)
(0.067102355 0 -2.1481721)
(0.067128773 0 -2.1478391)
(0.067165953 0 -2.1473704)
(0.0670418 0 -2.1489354)
(0.066903281 0 -2.1506816)
(0.066764762 0 -2.1524277)
(0.066626242 0 -2.1541739)
(0.066487723 0 -2.1559201)
(0.066349204 0 -2.1576662)
(0.066233828 0 -2.1591206)
(0.0661793 0 -2.159808)
(0.066202379 0 -2.1595171)
(0.066225457 0 -2.1592262)
(0.066248535 0 -2.1589353)
(0.066271613 0 -2.1586443)
(0.066294692 0 -2.1583534)
(0.066342433 0 -2.1577516)
(0.066414847 0 -2.1568387)
(0.066431544 0 -2.1566283)
(0.066444324 0 -2.1564672)
(0.066457104 0 -2.156306)
(0.066469884 0 -2.1561449)
(0.066482664 0 -2.1559838)
(0.066495446 0 -2.1558227)
(0.066539051 0 -2.155273)
(0.066529641 0 -2.1553917)
(0.066450294 0 -2.1563919)
(0.066370946 0 -2.1573922)
(0.066291599 0 -2.1583924)
(0.066212251 0 -2.1593926)
(0.066132904 0 -2.1603929)
(0.066138841 0 -2.1603181)
(0.066230149 0 -2.159167)
(0.066321457 0 -2.158016)
(0.066412765 0 -2.156865)
(0.066504073 0 -2.155714)
(0.066595381 0 -2.1545629)
(0.066648029 0 -2.1538993)
(0.06667549 0 -2.1535531)
(0.078627942 0 -2.0028815)
(0.090580395 0 -1.8522099)
(0.10253285 0 -1.7015383)
(0.1144853 0 -1.5508668)
(0.12643775 0 -1.4001952)
(0.1383902 0 -1.2495236)
(0.15034266 0 -1.098852)
(1.6994834 0 -3.1624347)
(1.6677129 0 -3.1609428)
(1.6359425 0 -3.1594509)
(1.604172 0 -3.157959)
(1.5724016 0 -3.1564671)
(1.5406311 0 -3.1549752)
(1.5088606 0 -3.1534833)
(1.4084735 0 -2.9068984)
(0.31649798 0 0.99568777)
(0.31663238 0 0.99738197)
(0.31676678 0 0.99907618)
(0.31690117 0 1.0007704)
(0.31703557 0 1.0024646)
(0.31716997 0 1.0041588)
(0.31729317 0 1.0057119)
(0.31732371 0 1.0060969)
(0.31738241 0 1.0068368)
(0.3174411 0 1.0075766)
(0.31749979 0 1.0083165)
(0.31755849 0 1.0090564)
(0.31761718 0 1.0097963)
(0.31767588 0 1.0105362)
(0.31764883 0 1.0101953)
(0.31768207 0 1.0106144)
(0.31771532 0 1.0110334)
(0.31774857 0 1.0114525)
(0.31778181 0 1.0118716)
(0.31781506 0 1.0122907)
(0.3178483 0 1.0127098)
(0.31789068 0 1.013244)
(0.31794762 0 1.0139617)
(0.31782676 0 1.0124383)
(0.31770024 0 1.0108434)
(0.31757372 0 1.0092484)
(0.3174472 0 1.0076535)
(0.31732067 0 1.0060586)
(0.31719415 0 1.0044636)
(0.31706763 0 1.0028687)
(0.31708707 0 1.0031138)
(0.31710273 0 1.0033112)
(0.31711839 0 1.0035086)
(0.31713404 0 1.0037059)
(0.3171497 0 1.0039033)
(0.31716536 0 1.0041007)
(0.31718101 0 1.004298)
(0.31720744 0 1.0046311)
(0.31724462 0 1.0050998)
(0.3172818 0 1.0055685)
(0.31731898 0 1.0060372)
(0.31735616 0 1.0065059)
(0.31739334 0 1.0069746)
(0.31743052 0 1.0074433)
(0.31736562 0 1.0066251)
(0.31725024 0 1.0051707)
(0.31713487 0 1.0037164)
(0.3170195 0 1.002262)
(0.31690413 0 1.0008077)
(0.31678876 0 0.99935335)
(0.31667339 0 0.99789901)
(0.31657185 0 0.99661893)
(0.31661959 0 0.9972208)
(0.31669201 0 0.99813363)
(0.31676442 0 0.99904647)
(0.31683683 0 0.9999593)
(0.31690925 0 1.0008721)
(0.31698166 0 1.001785)
(0.31705407 0 1.0026978)
(0.31709136 0 1.0031679)
(0.31713497 0 1.0037175)
(0.31717857 0 1.0042672)
(0.31722218 0 1.0048169)
(0.31726578 0 1.0053666)
(0.31730939 0 1.0059163)
(0.31735299 0 1.0064659)
(0.31738652 0 1.0068886)
(0.31739243 0 1.0069632)
(0.31742157 0 1.0073304)
(0.31744511 0 1.0076272)
(0.31746865 0 1.0079239)
(0.31749219 0 1.0082207)
(0.31751573 0 1.0085174)
(0.31753927 0 1.0088142)
(0.31756385 0 1.009124)
(0.3295163 0 1.1597956)
(0.34146875 0 1.3104671)
(0.3447 0 1.3512)
(0.3447 0 1.3512)
(0.3447 0 1.3512)
(0.3447 0 1.3512)
(0.3447 0 1.3512)
(2.8740082 0 -3.2175892)
(2.8422378 0 -3.2160973)
(2.8104673 0 -3.2146054)
(2.7786968 0 -3.2131135)
(2.7469264 0 -3.2116216)
(2.7151559 0 -3.2101297)
(2.6833855 0 -3.2086378)
(2.055785 0 -1.0788905)
(1.9365797 0 -0.65550533)
(1.9355402 0 -0.65419494)
(1.9345007 0 -0.65288455)
(1.9349405 0 -0.65343891)
(1.9358774 0 -0.65461997)
(1.9368143 0 -0.65580104)
(1.9377512 0 -0.6569821)
(1.9384236 0 -0.65782971)
(1.9388316 0 -0.65834406)
(1.9392396 0 -0.6588584)
(1.9396477 0 -0.65937274)
(1.9399131 0 -0.65970733)
(1.9397787 0 -0.65953799)
(1.9396444 0 -0.65936865)
(1.9395101 0 -0.65919931)
(1.9397402 0 -0.65948938)
(1.9399703 0 -0.65977946)
(1.9402004 0 -0.66006955)
(1.9404305 0 -0.66035964)
(1.9410862 0 -0.6611862)
(1.9418733 0 -0.66217835)
(1.9426603 0 -0.66317049)
(1.9426134 0 -0.66311135)
(1.9417328 0 -0.6620012)
(1.9408521 0 -0.66089105)
(1.9399714 0 -0.6597809)
(1.9391252 0 -0.65871419)
(1.9383764 0 -0.65777019)
(1.9376275 0 -0.65682619)
(1.9368787 0 -0.65588218)
(1.9369875 0 -0.65601938)
(1.9370965 0 -0.65615681)
(1.9372055 0 -0.65629424)
(1.9373146 0 -0.65643167)
(1.9377436 0 -0.65697254)
(1.9382751 0 -0.65764246)
(1.9388065 0 -0.65831238)
(1.9392758 0 -0.65890399)
(1.939683 0 -0.65941729)
(1.9400902 0 -0.65993059)
(1.9404624 0 -0.6603998)
(1.9407216 0 -0.66072655)
(1.9409808 0 -0.6610533)
(1.94124 0 -0.66138005)
(1.9414992 0 -0.66170679)
(1.9417201 0 -0.66198521)
(1.9419409 0 -0.66226364)
(1.9421618 0 -0.66254206)
(1.9416329 0 -0.66187526)
(1.9408299 0 -0.66086305)
(1.9400269 0 -0.65985083)
(1.9392239 0 -0.65883862)
(1.9385429 0 -0.65798009)
(1.9379837 0 -0.65727521)
(1.9374246 0 -0.65657032)
(1.9371239 0 -0.65619129)
(1.9376283 0 -0.65682711)
(1.9381326 0 -0.65746293)
(1.938637 0 -0.65809875)
(1.9391414 0 -0.65873458)
(1.9397441 0 -0.65949432)
(1.9403468 0 -0.66025406)
(1.9409495 0 -0.66101379)
(1.9413323 0 -0.66149639)
(1.9416358 0 -0.66187901)
(1.9419394 0 -0.66226163)
(1.9422429 0 -0.66264425)
(1.942357 0 -0.66278811)
(1.9422816 0 -0.6626931)
(1.9422063 0 -0.66259808)
(1.9421864 0 -0.66257308)
(1.94235 0 -0.66277931)
(1.9425136 0 -0.66298553)
(1.9426772 0 -0.66319175)
(1.1516788 0 1.199809)
(1.1626202 0 1.1977564)
(1.1735616 0 1.1957037)
(1.184503 0 1.1936511)
(1.1954444 0 1.1915985)
(1.2063858 0 1.1895458)
(1.2173272 0 1.1874932)
(1.2282686 0 1.1854406)
(4.0114 0 -3.271)
(4.0114 0 -3.271)
(4.0114 0 -3.271)
(3.9823476 0 -3.2696357)
(3.9505771 0 -3.2681438)
(3.9188067 0 -3.2666519)
(3.8870362 0 -3.26516)
(3.7732967 0 -2.9708497)
(3.7722572 0 -2.9695393)
(3.7712177 0 -2.9682289)
(3.7701782 0 -2.9669185)
(3.7691387 0 -2.9656081)
(3.7680992 0 -2.9642977)
(3.7670597 0 -2.9629874)
(3.7660236 0 -2.9616813)
(3.7666961 0 -2.9625291)
(3.7665622 0 -2.9623602)
(3.7664278 0 -2.9621909)
(3.7662935 0 -2.9620215)
(3.7661591 0 -2.9618522)
(3.7660248 0 -2.9616828)
(3.7658905 0 -2.9615135)
(3.7657561 0 -2.9613442)
(3.7662634 0 -2.9619836)
(3.7670505 0 -2.9629758)
(3.7678375 0 -2.9639679)
(3.7686246 0 -2.9649601)
(3.7694116 0 -2.9659522)
(3.7701987 0 -2.9669444)
(3.7709857 0 -2.9679365)
(3.7709401 0 -2.967879)
(3.7701913 0 -2.966935)
(3.7694424 0 -2.965991)
(3.7686935 0 -2.965047)
(3.7679447 0 -2.964103)
(3.7671958 0 -2.963159)
(3.766447 0 -2.962215)
(3.7656981 0 -2.961271)
(3.7660171 0 -2.9616731)
(3.7665485 0 -2.962343)
(3.7670799 0 -2.9630129)
(3.7676114 0 -2.9636828)
(3.7681428 0 -2.9643528)
(3.7686742 0 -2.9650227)
(3.7692057 0 -2.9656926)
(3.769675 0 -2.9662842)
(3.7700822 0 -2.9667975)
(3.7704894 0 -2.9673108)
(3.7708966 0 -2.9678241)
(3.7713038 0 -2.9683374)
(3.771711 0 -2.9688507)
(3.7721181 0 -2.969364)
(3.7724529 0 -2.969786)
(3.7726738 0 -2.9700645)
(3.7728946 0 -2.9703429)
(3.7731155 0 -2.9706213)
(3.7733364 0 -2.9708997)
(3.7735572 0 -2.9711781)
(3.7737781 0 -2.9714566)
(3.773999 0 -2.971735)
(3.7733325 0 -2.9708948)
(3.7727733 0 -2.97019)
(3.7722142 0 -2.9694851)
(3.771655 0 -2.9687802)
(3.7710958 0 -2.9680753)
(3.7705366 0 -2.9673704)
(3.7699775 0 -2.9666655)
(3.7699441 0 -2.9666235)
(3.7705468 0 -2.9673832)
(3.7711495 0 -2.9681429)
(3.7717522 0 -2.9689027)
(3.7723548 0 -2.9696624)
(3.7729575 0 -2.9704222)
(3.7735602 0 -2.9711819)
(3.7741629 0 -2.9719416)
(3.7742812 0 -2.9720908)
(3.7742059 0 -2.9719958)
(3.7741305 0 -2.9719008)
(3.7740551 0 -2.9718058)
(3.7739798 0 -2.9717108)
(3.7739044 0 -2.9716158)
(3.773829 0 -2.9715208)
(2.7467295 0 -0.32876624)
(2.0871949 0 1.0243041)
(2.0981363 0 1.0222515)
(2.1090777 0 1.0201989)
(2.1200191 0 1.0181462)
(2.1309605 0 1.0160936)
(2.1419019 0 1.014041)
(2.1528433 0 1.0119883)
(4.0473491 0 -3.0949297)
(4.0473446 0 -3.0949517)
(4.0473401 0 -3.0949738)
(4.0473356 0 -3.0949959)
(4.0473311 0 -3.095018)
(4.0473266 0 -3.0950401)
(4.0473221 0 -3.0950621)
(3.8221031 0 -2.323655)
(4.7759466 0 -2.8958714)
(4.7754626 0 -2.8961088)
(4.7752807 0 -2.8961981)
(4.7753972 0 -2.8961409)
(4.7755138 0 -2.8960837)
(4.7756303 0 -2.8960266)
(4.7757469 0 -2.8959694)
(4.7757737 0 -2.8959562)
(4.7757105 0 -2.8959872)
(4.7756496 0 -2.8960171)
(4.7759734 0 -2.8958582)
(4.7762972 0 -2.8956994)
(4.776621 0 -2.8955405)
(4.7769448 0 -2.8953816)
(4.7772685 0 -2.8952228)
(4.7776388 0 -2.8950411)
(4.7780092 0 -2.8948594)
(4.77804 0 -2.8948442)
(4.7777606 0 -2.8949813)
(4.7774812 0 -2.8951184)
(4.7772018 0 -2.8952555)
(4.7769224 0 -2.8953926)
(4.7769513 0 -2.8953784)
(4.7772886 0 -2.8952129)
(4.7776259 0 -2.8950474)
(4.7779633 0 -2.8948819)
(4.7783006 0 -2.8947164)
(4.7783099 0 -2.8947118)
(4.7779576 0 -2.8948847)
(4.7776053 0 -2.8950575)
(4.7773348 0 -2.8951903)
(4.7770643 0 -2.895323)
(4.7767938 0 -2.8954557)
(4.7765233 0 -2.8955884)
(4.7762528 0 -2.8957211)
(4.7764967 0 -2.8956015)
(4.7767457 0 -2.8954793)
(4.7769111 0 -2.8953981)
(4.7769931 0 -2.8953579)
(4.7770751 0 -2.8953177)
(4.7771571 0 -2.8952774)
(4.7772391 0 -2.8952372)
(4.7773736 0 -2.8951712)
(4.7775642 0 -2.8950777)
(4.7777548 0 -2.8949842)
(4.7778582 0 -2.8949334)
(4.7779616 0 -2.8948827)
(4.7780847 0 -2.8948223)
(4.778226 0 -2.894753)
(4.7783672 0 -2.8946837)
(4.7785085 0 -2.8946144)
(4.7786498 0 -2.894545)
(4.7785897 0 -2.8945745)
(4.7783285 0 -2.8947027)
(4.7780587 0 -2.8948351)
(4.7774072 0 -2.8951547)
(4.7767557 0 -2.8954744)
(4.7761041 0 -2.8957941)
(4.7754526 0 -2.8961138)
(4.7748011 0 -2.8964334)
(4.7750824 0 -2.8962954)
(4.7753639 0 -2.8961573)
(4.7757949 0 -2.8959458)
(4.7763725 0 -2.8956624)
(4.7769501 0 -2.895379)
(4.7775276 0 -2.8950956)
(4.7781052 0 -2.8948122)
(4.7783765 0 -2.8946792)
(4.7783412 0 -2.8946964)
(4.7782997 0 -2.8947168)
(4.7779982 0 -2.8948648)
(4.7776966 0 -2.8950127)
(4.777395 0 -2.8951607)
(4.7770934 0 -2.8953087)
(4.4091729 0 -1.9515125)
(3.0346974 0 0.84655059)
(3.0456388 0 0.84449796)
(3.0565802 0 0.84244533)
(3.0675216 0 0.8403927)
(3.078463 0 0.83834007)
(3.0894044 0 0.83628743)
(3.1003458 0 0.8342348)
(4.0894913 0 -2.8885272)
(4.0894868 0 -2.8885493)
(4.0894823 0 -2.8885714)
(4.0894778 0 -2.8885935)
(4.0894733 0 -2.8886156)
(4.0894688 0 -2.8886376)
(4.0894643 0 -2.8886597)
(2.1575178 0 -0.27098767)
(2.7018998 0 -0.67375861)
(2.7014877 0 -0.67341685)
(2.7010756 0 -0.67307508)
(2.7005808 0 -0.67266482)
(2.7000305 0 -0.67220846)
(2.6994802 0 -0.67175211)
(2.6989299 0 -0.67129576)
(2.6981961 0 -0.67068725)
(2.6972787 0 -0.66992646)
(2.6963613 0 -0.66916567)
(2.6953891 0 -0.66835945)
(2.6938655 0 -0.66709604)
(2.692342 0 -0.66583262)
(2.6908185 0 -0.6645692)
(2.6892951 0 -0.66330594)
(2.6906449 0 -0.66442522)
(2.6919946 0 -0.6655445)
(2.6933443 0 -0.66666378)
(2.6946767 0 -0.6677687)
(2.695997 0 -0.66886357)
(2.6973173 0 -0.66995844)
(2.6986375 0 -0.67105331)
(2.6985009 0 -0.67094004)
(2.6969069 0 -0.66961815)
(2.6953129 0 -0.66829627)
(2.6937188 0 -0.66697439)
(2.6922878 0 -0.66578768)
(2.6910881 0 -0.66479275)
(2.6898883 0 -0.66379782)
(2.6886885 0 -0.66280289)
(2.6899601 0 -0.66385741)
(2.6912318 0 -0.66491199)
(2.6925035 0 -0.66596657)
(2.6937752 0 -0.66702116)
(2.693978 0 -0.66718931)
(2.6940774 0 -0.66727174)
(2.6941768 0 -0.66735416)
(2.6940327 0 -0.66723463)
(2.6936453 0 -0.66691339)
(2.6932579 0 -0.66659214)
(2.6928705 0 -0.6662709)
(2.6932868 0 -0.66661611)
(2.6948414 0 -0.66790525)
(2.6963959 0 -0.66919439)
(2.69795 0 -0.67048316)
(2.697284 0 -0.66993084)
(2.696618 0 -0.66937853)
(2.6959519 0 -0.66882622)
(2.6952859 0 -0.6682739)
(2.6951171 0 -0.66813388)
(2.6949973 0 -0.6680346)
(2.6948776 0 -0.66793532)
(2.6963561 0 -0.66916138)
(2.6994334 0 -0.67171326)
(2.7025106 0 -0.67426513)
(2.7055879 0 -0.67681701)
(2.7071573 0 -0.67811848)
(2.7063956 0 -0.67748681)
(2.7056339 0 -0.67685515)
(2.7048722 0 -0.67622353)
(2.7054305 0 -0.67668647)
(2.7059887 0 -0.67714942)
(2.706547 0 -0.67761236)
(2.7051157 0 -0.67642543)
(2.7023908 0 -0.67416576)
(2.6996659 0 -0.67190609)
(2.696941 0 -0.66964643)
(2.6955743 0 -0.66851302)
(2.695566 0 -0.66850618)
(2.6955578 0 -0.66849935)
(2.6956793 0 -0.66860011)
(2.6971073 0 -0.66978436)
(2.6985354 0 -0.67096862)
(2.6999635 0 -0.67215288)
(2.7013916 0 -0.67333713)
(4.0056959 0 0.66438914)
(4.0166373 0 0.66233651)
(4.0275787 0 0.66028388)
(4.0385201 0 0.65823125)
(4.0494615 0 0.65617861)
(4.0604029 0 0.65412598)
(4.0713443 0 0.65207335)
(4.1326786 0 -2.6770065)
(4.1326741 0 -2.6770285)
(4.1326695 0 -2.6770506)
(4.132665 0 -2.6770727)
(4.1326605 0 -2.6770948)
(4.132656 0 -2.6771169)
(4.1326515 0 -2.677139)
(4.4142531 0 -0.37730625)
(0.9133668 0 1.5057644)
(0.91304705 0 1.5058393)
(0.91339076 0 1.5057588)
(0.91373447 0 1.5056783)
(0.91407818 0 1.5055978)
(0.91442189 0 1.5055173)
(0.9147656 0 1.5054368)
(0.91532009 0 1.505307)
(0.91608535 0 1.5051278)
(0.91685061 0 1.5049486)
(0.91761588 0 1.5047693)
(0.91838114 0 1.5045901)
(0.9191464 0 1.5044109)
(0.91989167 0 1.5042364)
(0.92059026 0 1.5040728)
(0.91946354 0 1.5043367)
(0.91833682 0 1.5046005)
(0.9172101 0 1.5048644)
(0.91608337 0 1.5051282)
(0.91495665 0 1.5053921)
(0.91382993 0 1.505656)
(0.91409724 0 1.5055934)
(0.91481772 0 1.5054246)
(0.91567037 0 1.505225)
(0.91667424 0 1.5049899)
(0.91767811 0 1.5047548)
(0.91868198 0 1.5045197)
(0.91968585 0 1.5042846)
(0.92068972 0 1.5040495)
(0.92169359 0 1.5038144)
(0.92136957 0 1.5038903)
(0.92121324 0 1.5039269)
(0.92113023 0 1.5039463)
(0.92104722 0 1.5039658)
(0.92096421 0 1.5039852)
(0.9208812 0 1.5040047)
(0.92079819 0 1.5040241)
(0.92086782 0 1.5040078)
(0.92078917 0 1.5040262)
(0.91948521 0 1.5043316)
(0.91818124 0 1.5046369)
(0.91687728 0 1.5049423)
(0.91557332 0 1.5052477)
(0.91426935 0 1.5055531)
(0.91296547 0 1.5058584)
(0.91247425 0 1.5059734)
(0.91240102 0 1.5059906)
(0.91250145 0 1.5059671)
(0.91260188 0 1.5059436)
(0.91270231 0 1.50592)
(0.91280274 0 1.5058965)
(0.91290317 0 1.505873)
(0.91352154 0 1.5057282)
(0.9145563 0 1.5054859)
(0.91519226 0 1.5053369)
(0.91582821 0 1.505188)
(0.91646416 0 1.5050391)
(0.91710011 0 1.5048901)
(0.91773606 0 1.5047412)
(0.91837155 0 1.5045924)
(0.91741167 0 1.5048172)
(0.91679832 0 1.5049608)
(0.91633249 0 1.5050699)
(0.91586665 0 1.505179)
(0.91540082 0 1.5052881)
(0.91493499 0 1.5053972)
(0.91446916 0 1.5055063)
(0.91423977 0 1.50556)
(0.91424669 0 1.5055584)
(0.9142536 0 1.5055567)
(0.91426051 0 1.5055551)
(0.91426742 0 1.5055535)
(0.91427433 0 1.5055519)
(0.91408715 0 1.5055957)
(0.91343782 0 1.5057478)
(5.0007731 0 0.47771047)
(5.0117145 0 0.47565784)
(5.0226559 0 0.47360521)
(5.0335973 0 0.47155258)
(5.0445387 0 0.46949994)
(5.0554801 0 0.46744731)
(5.0664215 0 0.46539468)
(4.1769368 0 -2.4602403)
(4.1769323 0 -2.4602624)
(4.1769277 0 -2.4602845)
(4.1769232 0 -2.4603066)
(4.1769187 0 -2.4603287)
(4.1769142 0 -2.4603508)
(4.1769097 0 -2.4603728)
(6.0667937 0 -0.39004607)
(4.6498706 0 0.63073105)
(4.6479599 0 0.63117852)
(4.6460491 0 0.63162599)
(4.6441384 0 0.63207346)
(4.6422276 0 0.63252093)
(4.6416252 0 0.63266201)
(4.6419689 0 0.63258152)
(4.6425234 0 0.63245167)
(4.6432887 0 0.63227245)
(4.644026 0 0.63209979)
(4.644725 0 0.63193608)
(4.6454241 0 0.63177237)
(4.6461231 0 0.63160867)
(4.6468222 0 0.63144496)
(4.6475209 0 0.63128132)
(4.6463942 0 0.63154518)
(4.6452675 0 0.63180905)
(4.6457608 0 0.6316935)
(4.6463877 0 0.63154671)
(4.6470145 0 0.63139991)
(4.6476413 0 0.63125312)
(4.6482682 0 0.63110632)
(4.6489886 0 0.6309376)
(4.6498028 0 0.63074694)
(4.650617 0 0.63055627)
(4.6514311 0 0.63036561)
(4.6522453 0 0.63017495)
(4.6530722 0 0.62998129)
(4.6540761 0 0.62974619)
(4.65508 0 0.6295111)
(4.6547557 0 0.62958704)
(4.6544313 0 0.62966301)
(4.6541069 0 0.62973898)
(4.6537825 0 0.62981496)
(4.6534581 0 0.62989093)
(4.6532706 0 0.62993483)
(4.6531876 0 0.62995427)
(4.6532572 0 0.62993796)
(4.6534793 0 0.62988595)
(4.6537014 0 0.62983395)
(4.6539234 0 0.62978194)
(4.6541455 0 0.62972994)
(4.6542665 0 0.62970161)
(4.6529625 0 0.63000698)
(4.6516587 0 0.63031232)
(4.6511675 0 0.63042735)
(4.6506762 0 0.63054239)
(4.650185 0 0.63065743)
(4.6496938 0 0.63077246)
(4.6492026 0 0.6308875)
(4.6490498 0 0.63092328)
(4.6491502 0 0.63089976)
(4.6497688 0 0.6307549)
(4.6509057 0 0.63048866)
(4.6520426 0 0.63022242)
(4.6531795 0 0.62995617)
(4.6543163 0 0.62968993)
(4.6554207 0 0.62943132)
(4.6560566 0 0.62928239)
(4.6566921 0 0.62913357)
(4.6557322 0 0.62935836)
(4.6547723 0 0.62958315)
(4.6538124 0 0.62980794)
(4.6528526 0 0.63003273)
(4.6518927 0 0.63025752)
(4.6512142 0 0.63041642)
(4.6507483 0 0.63052551)
(4.650519 0 0.63057921)
(4.6505259 0 0.63057759)
(4.6502507 0 0.63064205)
(4.6496013 0 0.63079412)
(4.648952 0 0.63094619)
(4.6483026 0 0.63109825)
(4.6476533 0 0.63125032)
(4.647004 0 0.63140238)
(6.0205265 0 0.28640249)
(6.0314679 0 0.28434986)
(6.0424093 0 0.28229723)
(6.0533507 0 0.2802446)
(6.0642921 0 0.27819197)
(6.0752335 0 0.27613933)
(6.0861749 0 0.2740867)
(4.2222925 0 -2.2380989)
(4.222288 0 -2.2381209)
(4.2222835 0 -2.238143)
(4.222279 0 -2.2381651)
(4.2222744 0 -2.2381872)
(4.2222699 0 -2.2382093)
(4.2222654 0 -2.2382313)
(6.1161905 0 -0.16347759)
(5.4521486 0 -0.0067488815)
(5.4531925 0 -0.0065544822)
(5.4542365 0 -0.0063600828)
(5.4552804 0 -0.0061656835)
(5.4563244 0 -0.0059712841)
(5.4573683 0 -0.0057768848)
(5.457653 0 -0.0057238772)
(5.4575021 0 -0.0057519777)
(5.4571187 0 -0.0058233649)
(5.4567353 0 -0.0058947522)
(5.456352 0 -0.0059661395)
(5.4559686 0 -0.0060375267)
(5.4555853 0 -0.006108914)
(5.4548521 0 -0.0062454415)
(5.4532701 0 -0.0065400355)
(5.4543653 0 -0.0063360917)
(5.4544428 0 -0.0063216666)
(5.4540998 0 -0.0063855362)
(5.4537568 0 -0.0064494058)
(5.4534138 0 -0.0065132754)
(5.4530708 0 -0.006577145)
(5.4527278 0 -0.0066410146)
(5.4523336 0 -0.0067144248)
(5.4518881 0 -0.0067973812)
(5.4514426 0 -0.0068803376)
(5.4509971 0 -0.0069632941)
(5.4505517 0 -0.0070462505)
(5.4501062 0 -0.0071292069)
(5.4497052 0 -0.0072038789)
(5.4494088 0 -0.0072590686)
(5.4495863 0 -0.0072260196)
(5.4497638 0 -0.0071929634)
(5.4499413 0 -0.0071599071)
(5.4501188 0 -0.0071268509)
(5.4502963 0 -0.0070937947)
(5.4504739 0 -0.0070607384)
(5.450305 0 -0.0070921845)
(5.4501159 0 -0.0071273972)
(5.4499943 0 -0.007150043)
(5.4498727 0 -0.0071726888)
(5.4497511 0 -0.0071953346)
(5.4496295 0 -0.0072179804)
(5.4495078 0 -0.0072406262)
(5.4495095 0 -0.0072403151)
(5.4498002 0 -0.0071861914)
(5.4500686 0 -0.0071362081)
(5.450337 0 -0.0070862247)
(5.4506054 0 -0.0070362413)
(5.4508738 0 -0.0069862579)
(5.4511422 0 -0.0069362746)
(5.4514107 0 -0.0068862912)
(5.4519259 0 -0.0067903443)
(5.4519043 0 -0.0067943594)
(5.451283 0 -0.0069100735)
(5.4506616 0 -0.0070257876)
(5.4500402 0 -0.0071415017)
(5.4494188 0 -0.0072572158)
(5.4487974 0 -0.0073729299)
(5.4481661 0 -0.0074904746)
(5.4475123 0 -0.0076122314)
(5.4480367 0 -0.0075145828)
(5.4485611 0 -0.0074169341)
(5.4490854 0 -0.0073192855)
(5.4496098 0 -0.0072216368)
(5.4501342 0 -0.0071239882)
(5.4506586 0 -0.0070263395)
(5.4508191 0 -0.0069964438)
(5.4509298 0 -0.0069758289)
(5.4511242 0 -0.006939637)
(5.4514797 0 -0.0068734432)
(5.4518351 0 -0.0068072495)
(5.4521906 0 -0.0067410558)
(5.4525461 0 -0.0066748621)
(5.4529015 0 -0.0066086683)
(5.453257 0 -0.0065424746)
(6.5171447 0 0.16844903)
(6.5171449 0 0.16845046)
(6.5171452 0 0.16845188)
(6.5171455 0 0.16845331)
(6.5171457 0 0.16845474)
(6.517146 0 0.16845617)
(6.5171463 0 0.1684576)
(4.2687729 0 -2.0104487)
(4.2687684 0 -2.0104707)
(4.2687639 0 -2.0104928)
(4.2687594 0 -2.0105149)
(4.2687549 0 -2.010537)
(4.2687504 0 -2.0105591)
(4.2687459 0 -2.0105812)
(6.1668122 0 0.068709359)
(3.3081903 0 -0.40598803)
(3.3092343 0 -0.40579363)
(3.3102782 0 -0.40559924)
(3.3109475 0 -0.40547461)
(3.311029 0 -0.40545943)
(3.3111106 0 -0.40544424)
(3.3111921 0 -0.40542905)
(3.3110413 0 -0.40545714)
(3.3106579 0 -0.40552853)
(3.3102746 0 -0.40559991)
(3.3098912 0 -0.4056713)
(3.30844 0 -0.40594154)
(3.3068577 0 -0.4062362)
(3.3052753 0 -0.40653086)
(3.3036933 0 -0.40682545)
(3.3047885 0 -0.4066215)
(3.3058837 0 -0.40641756)
(3.3069789 0 -0.40621362)
(3.3079201 0 -0.40603835)
(3.3075772 0 -0.40610222)
(3.3072342 0 -0.40616609)
(3.3068912 0 -0.40622996)
(3.306497 0 -0.40630337)
(3.3060515 0 -0.40638633)
(3.305606 0 -0.40646928)
(3.3051605 0 -0.40655224)
(3.3048487 0 -0.4066103)
(3.3045523 0 -0.40666549)
(3.3042559 0 -0.40672068)
(3.3039596 0 -0.40677587)
(3.304137 0 -0.40674283)
(3.3043145 0 -0.40670978)
(3.304492 0 -0.40667672)
(3.3044971 0 -0.40667577)
(3.3042404 0 -0.40672357)
(3.3039838 0 -0.40677136)
(3.3037271 0 -0.40681916)
(3.303538 0 -0.40685438)
(3.3034164 0 -0.40687702)
(3.3032948 0 -0.40689967)
(3.3031732 0 -0.40692231)
(3.3034222 0 -0.40687594)
(3.3037128 0 -0.40682182)
(3.3040035 0 -0.40676769)
(3.3042941 0 -0.40671357)
(3.3045626 0 -0.40666358)
(3.304831 0 -0.4066136)
(3.3050994 0 -0.40656362)
(3.3054907 0 -0.40649076)
(3.306069 0 -0.40638306)
(3.3066473 0 -0.40627537)
(3.3072257 0 -0.40616767)
(3.3072041 0 -0.40617168)
(3.3065827 0 -0.40628739)
(3.3059613 0 -0.40640311)
(3.3053399 0 -0.40651882)
(3.3046892 0 -0.40664)
(3.3040351 0 -0.40676181)
(3.303381 0 -0.40688362)
(3.302727 0 -0.4070054)
(3.3032514 0 -0.40690775)
(3.3037757 0 -0.4068101)
(3.3043001 0 -0.40671245)
(3.3046433 0 -0.40664855)
(3.3047115 0 -0.40663586)
(3.3047796 0 -0.40662317)
(3.3048477 0 -0.40661048)
(3.3049584 0 -0.40658986)
(3.3051117 0 -0.40656133)
(3.3052649 0 -0.4065328)
(3.3054181 0 -0.40650428)
(3.3056935 0 -0.40645299)
(3.3060489 0 -0.4063868)
(3.3064044 0 -0.4063206)
(3.3067599 0 -0.40625441)
(6.5081925 0 0.12032426)
(6.5081928 0 0.12032569)
(6.5081931 0 0.12032711)
(6.5081933 0 0.12032854)
(6.5081936 0 0.12032997)
(6.5081939 0 0.1203314)
(6.5081941 0 0.12033283)
(4.316406 0 -1.7771532)
(4.3164015 0 -1.7771753)
(4.316397 0 -1.7771973)
(4.3163925 0 -1.7772194)
(4.316388 0 -1.7772415)
(4.3163835 0 -1.7772636)
(4.316379 0 -1.7772857)
(4.8400563 0 -0.16942552)
(1.1110139 0 -0.81513727)
(1.1110954 0 -0.81512208)
(1.111177 0 -0.8151069)
(1.1112585 0 -0.81509171)
(1.1113401 0 -0.81507652)
(1.1114217 0 -0.81506133)
(1.1115032 0 -0.81504614)
(1.1113524 0 -0.81507422)
(1.1103049 0 -0.81526929)
(1.1087226 0 -0.81556395)
(1.1071402 0 -0.81585861)
(1.1055579 0 -0.81615327)
(1.1039755 0 -0.81644792)
(1.1023932 0 -0.81674258)
(1.1008112 0 -0.81703717)
(1.1019064 0 -0.81683323)
(1.1030016 0 -0.81662928)
(1.1040968 0 -0.81642534)
(1.105192 0 -0.8162214)
(1.1062872 0 -0.81601745)
(1.1073824 0 -0.81581351)
(1.1078419 0 -0.81572794)
(1.1074477 0 -0.81580135)
(1.1070855 0 -0.81586879)
(1.1067892 0 -0.81592398)
(1.1064928 0 -0.81597917)
(1.1061964 0 -0.81603436)
(1.1059 0 -0.81608955)
(1.1056037 0 -0.81614474)
(1.1053073 0 -0.81619993)
(1.1054582 0 -0.81617182)
(1.1052016 0 -0.81621961)
(1.1049449 0 -0.81626741)
(1.1046882 0 -0.81631521)
(1.1044315 0 -0.81636301)
(1.1041749 0 -0.8164108)
(1.1039182 0 -0.8164586)
(1.1037291 0 -0.81649381)
(1.1038398 0 -0.8164732)
(1.1041304 0 -0.81641908)
(1.1044211 0 -0.81636495)
(1.1047117 0 -0.81631083)
(1.1050024 0 -0.8162567)
(1.105293 0 -0.81620258)
(1.1055837 0 -0.81614846)
(1.105871 0 -0.81609496)
(1.1064493 0 -0.81598726)
(1.1070276 0 -0.81587957)
(1.107606 0 -0.81577187)
(1.1081843 0 -0.81566418)
(1.1087626 0 -0.81555649)
(1.109341 0 -0.81544879)
(1.1093195 0 -0.81545279)
(1.1086799 0 -0.8155719)
(1.1080257 0 -0.81569371)
(1.1073716 0 -0.81581552)
(1.1067175 0 -0.81593733)
(1.1060634 0 -0.81605913)
(1.1054092 0 -0.81618094)
(1.1047551 0 -0.81630275)
(1.1052515 0 -0.81621032)
(1.1053196 0 -0.81619763)
(1.1053878 0 -0.81618493)
(1.1054559 0 -0.81617224)
(1.1055241 0 -0.81615955)
(1.1055922 0 -0.81614686)
(1.1056604 0 -0.81613417)
(1.1057711 0 -0.81611356)
(1.1059243 0 -0.81608503)
(1.1060775 0 -0.8160565)
(1.1062307 0 -0.81602797)
(1.1063839 0 -0.81599944)
(1.1065371 0 -0.81597091)
(1.1066903 0 -0.81594238)
(1.1070338 0 -0.81587843)
(6.4990184 0 0.071006083)
(6.4990187 0 0.071007512)
(6.499019 0 0.07100894)
(6.4990192 0 0.071010368)
(6.4990195 0 0.071011796)
(6.4990198 0 0.071013225)
(6.49902 0 0.071014653)
(4.3652203 0 -1.5380724)
(4.3652158 0 -1.5380945)
(4.3652113 0 -1.5381166)
(4.3652068 0 -1.5381387)
(4.3652023 0 -1.5381607)
(4.3651978 0 -1.5381828)
(4.3651932 0 -1.5382049)
(3.3596209 0 -0.45517377)
(0.83928 0 -0.89160555)
(0.83925183 0 -0.89160936)
(0.83922367 0 -0.89161318)
(0.8391955 0 -0.89161699)
(0.83916734 0 -0.8916208)
(0.83913917 0 -0.89162462)